/*--------------------------------*- C++ -*----------------------------------*\
  =========                 |
  \\      /  F ield         | OpenFOAM: The Open Source CFD Toolbox
   \\    /   O peration     | Website:  https://openfoam.org
    \\  /    A nd           | Version:  8
     \\/     M anipulation  |
\*---------------------------------------------------------------------------*/
FoamFile
{
    version     2.0;
    format      ascii;
    class       volScalarField;
    object      p;
}
// * * * * * * * * * * * * * * * * * * * * * * * * * * * * * * * * * * * * * //

dimensions      [0 2 -2 0 0 0 0];

internalField   uniform 0.0;

boundaryField
{

    xMin
    {
        type            zeroGradient;
    }
    xMax
    {
        type            totalPressure;
        p0              uniform 0;
        gamma           1.4;
        value           uniform 0;
    }
	yMin
    {
        type            totalPressure;
        p0              uniform 0;
        gamma           1.4;
        value           uniform 0;
    }
	yMax
    {
        type            totalPressure;
        p0              uniform 0;
        gamma           1.4;
        value           uniform 0;
    }
	zMax
    {
        type            fixedValue;
        value           uniform 0;
    }

    ground
    {
        type            zeroGradient;
    }

}

// ************************************************************************* //
